# vtk DataFile Version 3.0
Laplace solution
ASCII
DATASET STRUCTURED_POINTS
DIMENSIONS 50 50 1
ORIGIN 0 0 0
SPACING 0.0204082 0.0204082 1
POINT_DATA 2500
SCALARS U double 1
LOOKUP_TABLE default
1
1.08469
1.16954
1.2543
1.33871
1.42254
1.50553
1.58745
1.66807
1.74716
1.82451
1.89991
1.97317
2.04411
2.11254
2.17832
2.24129
2.30133
2.35831
2.41214
2.46272
2.50999
2.55389
2.59439
2.63147
2.66512
2.69535
2.7222
2.74572
2.76597
2.78304
2.79701
2.80801
2.81617
2.82163
2.82456
2.82512
2.82351
2.81993
2.81459
2.80771
2.79953
2.7903
2.78027
2.7697
2.75885
2.74801
2.73744
2.72744
2.71828
1.02062
1.10521
1.18997
1.27466
1.35902
1.4428
1.52577
1.6077
1.68834
1.76749
1.84492
1.92043
1.99384
2.06496
2.13361
2.19964
2.2629
2.32327
2.38063
2.43487
2.48592
2.53369
2.57815
2.61925
2.65697
2.69131
2.72229
2.74993
2.77428
2.79542
2.81342
2.82837
2.8404
2.84963
2.85621
2.8603
2.86207
2.86171
2.85942
2.85541
2.8499
2.84314
2.83535
2.8268
2.81774
2.80844
2.79917
2.7902
2.78183
2.77433
1.04166
1.12512
1.20876
1.29235
1.37564
1.4584
1.54038
1.62136
1.70111
1.77943
1.8561
1.93092
2.00371
2.07428
2.14248
2.20815
2.27115
2.33135
2.38864
2.44292
2.49412
2.54215
2.58697
2.62855
2.66686
2.70191
2.73371
2.76229
2.7877
2.81
2.82928
2.84562
2.85915
2.86998
2.87827
2.88416
2.88784
2.88947
2.88926
2.88742
2.88416
2.87972
2.87432
2.86823
2.86168
2.85495
2.84829
2.84199
2.83631
2.83153
1.06314
1.14445
1.22597
1.30747
1.38871
1.46946
1.5495
1.62862
1.70659
1.78321
1.85829
1.93163
2.00306
2.0724
2.1395
2.20421
2.2664
2.32595
2.38274
2.43669
2.48772
2.53576
2.58077
2.62271
2.66157
2.69734
2.73004
2.7597
2.78638
2.81012
2.83101
2.84914
2.86462
2.87758
2.88815
2.89647
2.90273
2.90709
2.90974
2.91088
2.91073
2.90949
2.90742
2.90473
2.90168
2.89851
2.89549
2.89287
2.89092
2.88991
1.08506
1.16326
1.2417
1.32014
1.39839
1.47621
1.55341
1.62978
1.70511
1.77922
1.85191
1.92302
1.99238
2.05982
2.1252
2.18838
2.24923
2.30766
2.36354
2.41681
2.46738
2.51519
2.56021
2.60241
2.64176
2.67827
2.71195
2.74284
2.77098
2.79642
2.81925
2.83956
2.85744
2.87301
2.88641
2.89777
2.90726
2.91504
2.92129
2.9262
2.92997
2.93281
2.93494
2.93658
2.93796
2.93932
2.94091
2.94296
2.94574
2.94949
1.10743
1.18161
1.25606
1.33056
1.40492
1.47895
1.55245
1.62524
1.69713
1.76794
1.83752
1.90569
1.9723
2.03721
2.10029
2.1614
2.22044
2.2773
2.33189
2.38414
2.43398
2.48135
2.52622
2.56857
2.60837
2.64563
2.68037
2.71262
2.74241
2.76981
2.79489
2.81772
2.83842
2.85708
2.87382
2.88879
2.90213
2.91399
2.92454
2.93396
2.94243
2.95015
2.95731
2.96414
2.97083
2.97763
2.98474
2.9924
3.00084
3.0103
1.13026
1.19959
1.26921
1.33894
1.40861
1.47805
1.54707
1.61552
1.68322
1.75004
1.81581
1.88039
1.94365
2.00546
2.06569
2.12424
2.18101
2.23591
2.28886
2.33979
2.38864
2.43537
2.47995
2.52235
2.56256
2.60059
2.63646
2.67018
2.70181
2.7314
2.759
2.78471
2.8086
2.83078
2.85135
2.87045
2.88821
2.90475
2.92025
2.93486
2.94874
2.96208
2.97506
2.98786
3.00069
3.01374
3.02723
3.04135
3.05633
3.07237
1.15356
1.21729
1.28135
1.34557
1.40982
1.47394
1.53778
1.60121
1.66408
1.72626
1.78761
1.84803
1.90738
1.96557
2.02248
2.07804
2.13214
2.18472
2.23571
2.28505
2.33269
2.3786
2.42275
2.46512
2.50571
2.54453
2.58158
2.6169
2.65053
2.68251
2.7129
2.74178
2.76921
2.7953
2.82014
2.84384
2.86652
2.8883
2.90933
2.92973
2.94967
2.9693
2.98878
3.00828
3.02798
3.04805
3.06867
3.09003
3.11231
3.13571
1.17735
1.23483
1.29267
1.35075
1.40895
1.46714
1.5252
1.58301
1.64047
1.69746
1.75387
1.80962
1.86459
1.91872
1.9719
2.02407
2.07516
2.12511
2.17387
2.22139
2.26763
2.31257
2.35618
2.39846
2.4394
2.47902
2.51732
2.55434
2.5901
2.62466
2.65807
2.69037
2.72166
2.752
2.78148
2.81019
2.83824
2.86574
2.8928
2.91954
2.9461
2.9726
2.99919
3.02601
3.05322
3.08095
3.10937
3.13864
3.16892
3.20037
1.20162
1.25232
1.30342
1.35482
1.40645
1.45819
1.50996
1.56168
1.61325
1.66459
1.71563
1.76629
1.8165
1.86619
1.9153
1.96378
2.01158
2.05865
2.10495
2.15045
2.19513
2.23897
2.28196
2.32409
2.36537
2.4058
2.44541
2.48421
2.52224
2.55953
2.59613
2.6321
2.66749
2.70237
2.7368
2.77088
2.80468
2.83829
2.87181
2.90534
2.93898
2.97285
3.00706
3.04172
3.07697
3.11292
3.1497
3.18745
3.22629
3.26635
1.2264
1.26989
1.31383
1.35816
1.4028
1.4477
1.4928
1.53803
1.58335
1.6287
1.67403
1.71928
1.76442
1.80939
1.85417
1.89871
1.94299
1.98698
2.03066
2.07401
2.11701
2.15966
2.20196
2.2439
2.2855
2.32677
2.36772
2.40837
2.44876
2.48892
2.52888
2.56868
2.60838
2.64802
2.68767
2.72739
2.76723
2.80727
2.84759
2.88826
2.92936
2.97099
3.01321
3.05614
3.09985
3.14446
3.19004
3.23671
3.28456
3.3337
1.25168
1.28769
1.32418
1.36113
1.39852
1.4363
1.47445
1.51295
1.55176
1.59087
1.63025
1.66988
1.70973
1.74979
1.79006
1.8305
1.87111
1.91189
1.95283
1.99392
2.03517
2.07657
2.11813
2.15987
2.20179
2.24391
2.28624
2.32881
2.37163
2.41474
2.45817
2.50194
2.5461
2.59068
2.63572
2.68127
2.72738
2.77409
2.82145
2.86952
2.91835
2.968
3.01854
3.07003
3.12252
3.17608
3.23079
3.2867
3.34389
3.40243
1.27749
1.30585
1.33474
1.36417
1.39414
1.42465
1.45571
1.48733
1.5195
1.55223
1.58554
1.61942
1.65388
1.68893
1.72458
1.76084
1.79771
1.83521
1.87335
1.91214
1.95159
1.99172
2.03253
2.07406
2.1163
2.15929
2.20303
2.24755
2.29286
2.33899
2.38596
2.43379
2.4825
2.53212
2.58267
2.63418
2.68667
2.74018
2.79473
2.85036
2.90708
2.96494
3.02396
3.08418
3.14564
3.20835
3.27237
3.33772
3.40445
3.47258
1.30383
1.32452
1.34578
1.36766
1.3902
1.41342
1.43737
1.46209
1.4876
1.51395
1.54116
1.56929
1.59834
1.62837
1.6594
1.69147
1.72459
1.75881
1.79416
1.83064
1.86831
1.90716
1.94725
1.98857
2.03116
2.07503
2.1202
2.16669
2.21452
2.2637
2.31423
2.36615
2.41944
2.47414
2.53024
2.58775
2.64668
2.70704
2.76883
2.83206
2.89673
2.96284
3.03041
3.09942
3.16989
3.24182
3.31521
3.39006
3.46638
3.54418
1.33071
1.34384
1.35759
1.37204
1.38725
1.40329
1.42024
1.43816
1.45711
1.47717
1.4984
1.52085
1.5446
1.56969
1.59618
1.62412
1.65358
1.68458
1.71719
1.75143
1.78735
1.82498
1.86436
1.90552
1.94847
1.99325
2.03986
2.08834
2.13868
2.19089
2.24499
2.30097
2.35883
2.41858
2.48019
2.54367
2.60899
2.67615
2.74513
2.81591
2.88846
2.96277
3.03881
3.11656
3.19598
3.27705
3.35974
3.44402
3.52987
3.61725
1.35815
1.36396
1.37045
1.3777
1.38583
1.39493
1.4051
1.41645
1.42907
1.44306
1.4585
1.47548
1.4941
1.51443
1.53655
1.56053
1.58645
1.61438
1.64436
1.67646
1.71073
1.74722
1.78596
1.82699
1.87034
1.91604
1.96411
2.01455
2.06738
2.12259
2.1802
2.24018
2.30253
2.36723
2.43425
2.50357
2.57516
2.64899
2.72501
2.80317
2.88345
2.96578
3.05011
3.13639
3.22457
3.31459
3.40638
3.49989
3.59506
3.69183
1.38615
1.38503
1.38461
1.38505
1.38646
1.38898
1.39274
1.39787
1.40449
1.41272
1.42269
1.4345
1.44828
1.46411
1.48211
1.50237
1.52497
1.55
1.57754
1.60765
1.6404
1.67585
1.71404
1.75502
1.79881
1.84545
1.89496
1.94734
2.00261
2.06076
2.12177
2.18564
2.25234
2.32184
2.3941
2.46907
2.54672
2.62697
2.70979
2.79509
2.88281
2.97287
3.0652
3.15972
3.25635
3.35499
3.45556
3.55797
3.66213
3.76795
1.41473
1.40717
1.40036
1.39446
1.38965
1.38606
1.38388
1.38324
1.38431
1.38722
1.39213
1.39917
1.40848
1.42017
1.43438
1.45122
1.47078
1.49318
1.5185
1.54683
1.57823
1.61278
1.65053
1.69153
1.73582
1.78342
1.83436
1.88865
1.94628
2.00725
2.07155
2.13915
2.21
2.28408
2.36133
2.44169
2.5251
2.61148
2.70075
2.79283
2.88762
2.98503
3.08496
3.18729
3.29193
3.39876
3.50766
3.61852
3.73122
3.84564
1.4439
1.43051
1.41792
1.4063
1.39586
1.38677
1.37921
1.37338
1.36944
1.36756
1.36792
1.37067
1.37597
1.38396
1.39479
1.40858
1.42546
1.44553
1.46892
1.4957
1.52596
1.55979
1.59723
1.63835
1.68319
1.73177
1.78412
1.84025
1.90016
1.96383
2.03124
2.10236
2.17714
2.25552
2.33746
2.42287
2.51167
2.60378
2.69909
2.7975
2.89889
3.00316
3.11018
3.21981
3.33193
3.4464
3.56307
3.68181
3.80248
3.92492
1.47367
1.45518
1.43752
1.42089
1.40552
1.39161
1.37937
1.369
1.3607
1.35465
1.35106
1.35009
1.35192
1.35672
1.36464
1.37582
1.39041
1.40853
1.4303
1.45582
1.48519
1.51849
1.55578
1.59713
1.64258
1.69217
1.74591
1.80381
1.86588
1.93208
2.00241
2.0768
2.15522
2.23759
2.32385
2.41391
2.50768
2.60504
2.70589
2.81011
2.91756
3.02811
3.14161
3.25792
3.37688
3.49834
3.62213
3.74809
3.87605
4.00585
1.50405
1.48127
1.45936
1.43853
1.41903
1.40109
1.38492
1.37076
1.35882
1.34931
1.34243
1.33839
1.33736
1.33954
1.34509
1.35416
1.36692
1.3835
1.40402
1.4286
1.45734
1.49033
1.52764
1.56935
1.61548
1.66609
1.72119
1.78079
1.84488
1.91345
1.98645
2.06385
2.14558
2.23157
2.32174
2.416
2.51423
2.61632
2.72214
2.83156
2.94444
3.06061
3.17992
3.3022
3.42729
3.555
3.68515
3.81757
3.95206
4.08844
1.53506
1.50889
1.48361
1.45947
1.43671
1.41559
1.39635
1.37922
1.36444
1.35223
1.34281
1.3364
1.33319
1.33337
1.33714
1.34465
1.35608
1.37156
1.39123
1.41522
1.44364
1.47656
1.51409
1.55628
1.60318
1.65483
1.71125
1.77246
1.83843
1.90915
1.98458
2.06467
2.14935
2.23855
2.33218
2.43013
2.53228
2.63851
2.74868
2.86265
2.98025
3.10132
3.22568
3.35316
3.48357
3.61672
3.75241
3.89044
4.03062
4.17273
1.56671
1.53811
1.51042
1.48391
1.45884
1.43548
1.41406
1.39485
1.37808
1.364
1.35284
1.34481
1.34013
1.339
1.34162
1.34816
1.35878
1.37366
1.39292
1.41669
1.44509
1.47822
1.51616
1.55897
1.60672
1.65944
1.71714
1.77985
1.84754
1.9202
1.99778
2.08023
2.16749
2.25946
2.35605
2.45714
2.56263
2.67237
2.78621
2.90401
3.02558
3.15077
3.27938
3.41121
3.54609
3.6838
3.82413
3.96688
4.11183
4.25877
1.59901
1.56899
1.53991
1.51203
1.48564
1.46099
1.43836
1.41799
1.40015
1.38507
1.37299
1.36415
1.35876
1.35703
1.35917
1.36534
1.37574
1.39051
1.40981
1.43376
1.46248
1.49608
1.53464
1.57824
1.62691
1.68072
1.73967
1.80377
1.87302
1.94739
2.02683
2.11129
2.20071
2.29498
2.39401
2.49769
2.60589
2.71847
2.83527
2.95614
3.08091
3.20938
3.34138
3.47669
3.61513
3.75647
3.9005
4.04701
4.19578
4.34657
1.63198
1.60159
1.57215
1.54395
1.51725
1.49234
1.46947
1.44891
1.43091
1.41573
1.40361
1.39478
1.38947
1.38788
1.39021
1.39666
1.40741
1.42261
1.44241
1.46695
1.49634
1.5307
1.5701
1.61462
1.66432
1.71924
1.77939
1.84478
1.91541
1.99125
2.07225
2.15836
2.24951
2.3456
2.44654
2.55221
2.66248
2.77721
2.89624
3.01941
3.14654
3.27745
3.41195
3.54982
3.69088
3.8349
3.98166
4.13095
4.28253
4.43619
1.66563
1.63593
1.6072
1.57972
1.55376
1.5296
1.5075
1.48772
1.47053
1.45617
1.44488
1.4369
1.43245
1.43175
1.43499
1.44236
1.45405
1.47021
1.49099
1.51653
1.54695
1.58235
1.62282
1.66843
1.71924
1.77528
1.83659
1.90316
1.97499
2.05206
2.13432
2.22171
2.31416
2.41159
2.51389
2.62095
2.73263
2.8488
2.96931
3.09399
3.22266
3.35514
3.49123
3.63075
3.77347
3.91919
4.06769
4.21875
4.37215
4.52765
1.69997
1.67203
1.64507
1.61937
1.59519
1.5728
1.55247
1.53445
1.51901
1.50638
1.49681
1.49052
1.48774
1.48867
1.49351
1.50246
1.51568
1.53334
1.55558
1.58254
1.61433
1.65106
1.69282
1.73967
1.79168
1.84888
1.9113
1.97894
2.0518
2.12985
2.21306
2.30136
2.39469
2.49296
2.59608
2.70392
2.81637
2.93329
3.05452
3.17992
3.30929
3.44248
3.57927
3.7195
3.86294
4.00939
4.15864
4.31047
4.46466
4.62101
1.73502
1.70989
1.68574
1.66285
1.64147
1.62187
1.60429
1.589
1.57624
1.56625
1.55925
1.55548
1.55515
1.55845
1.56559
1.57675
1.59209
1.61177
1.63594
1.66472
1.69824
1.73658
1.77985
1.8281
1.8814
1.93978
2.00327
2.07187
2.14559
2.22439
2.30824
2.3971
2.49088
2.58952
2.69291
2.80096
2.91353
3.03051
3.15173
3.27706
3.40633
3.53937
3.67598
3.816
3.95922
4.10545
4.25447
4.40609
4.5601
4.71628
1.77079
1.74948
1.72916
1.71008
1.6925
1.67665
1.66279
1.65116
1.64198
1.63549
1.63192
1.63146
1.63433
1.64073
1.65083
1.66481
1.68284
1.70506
1.73161
1.76262
1.79819
1.83843
1.88341
1.93322
1.98789
2.04747
2.11199
2.18146
2.25586
2.33519
2.4194
2.50846
2.60229
2.70083
2.80399
2.91167
3.02375
3.14011
3.26062
3.38514
3.51352
3.64558
3.78117
3.9201
4.0622
4.20727
4.35514
4.5056
4.65846
4.81352
1.8073
1.79078
1.77524
1.76093
1.74808
1.73692
1.72768
1.72058
1.71585
1.7137
1.71434
1.71796
1.72477
1.73493
1.74863
1.76603
1.78727
1.81252
1.84188
1.87549
1.91345
1.95584
2.00275
2.05425
2.11039
2.1712
2.23671
2.30694
2.38188
2.46152
2.54582
2.63475
2.72825
2.82626
2.92869
3.03546
3.14646
3.26159
3.38072
3.50372
3.63045
3.76076
3.89451
4.03153
4.17165
4.31471
4.46052
4.60892
4.75973
4.91276
1.84457
1.83373
1.82387
1.81521
1.80797
1.80236
1.79859
1.79686
1.79737
1.80033
1.80593
1.81434
1.82574
1.84031
1.8582
1.87956
1.90453
1.93326
1.96584
2.00241
2.04304
2.08784
2.13687
2.1902
2.24788
2.30995
2.37643
2.44733
2.52266
2.60241
2.68656
2.77506
2.86787
2.96494
3.0662
3.17156
3.28094
3.39425
3.51137
3.6322
3.7566
3.88444
4.0156
4.14993
4.28729
4.42752
4.57046
4.71597
4.86389
5.01405
1.8826
1.87826
1.87489
1.8727
1.87187
1.87259
1.87506
1.87945
1.88594
1.89472
1.90594
1.91979
1.93641
1.95596
1.97857
2.0044
2.03356
2.06618
2.10236
2.1422
2.18579
2.23322
2.28455
2.33984
2.39914
2.46249
2.5299
2.60141
2.67701
2.7567
2.84045
2.92825
3.02006
3.11583
3.2155
3.31901
3.42629
3.53726
3.65181
3.76986
3.89131
4.01604
4.14394
4.27489
4.40876
4.54543
4.68476
4.82663
4.9709
5.11743
1.92141
1.9243
1.92815
1.93314
1.93943
1.94718
1.95656
1.96774
1.98085
1.99607
2.01353
2.03338
2.05576
2.0808
2.10863
2.13937
2.17312
2.21
2.2501
2.29351
2.34031
2.39058
2.44436
2.50173
2.56272
2.62737
2.69571
2.76776
2.84352
2.92299
3.00617
3.09303
3.18356
3.27771
3.37544
3.47671
3.58146
3.68962
3.80111
3.91588
4.03383
4.15487
4.27892
4.40587
4.53564
4.6681
4.80318
4.94075
5.0807
5.22294
1.96103
1.97176
1.98344
1.99622
2.01024
2.02562
2.0425
2.06103
2.08132
2.10351
2.12772
2.15407
2.18268
2.21366
2.24711
2.28314
2.32184
2.3633
2.40761
2.45483
2.50505
2.55833
2.61471
2.67426
2.73701
2.80299
2.87224
2.94477
3.02061
3.09974
3.18218
3.26791
3.35692
3.44919
3.5447
3.64339
3.74525
3.85022
3.95825
4.06929
4.18328
4.30016
4.41986
4.54231
4.66744
4.79517
4.92544
5.05815
5.19324
5.33063
2.00146
2.02054
2.04056
2.06163
2.08386
2.10735
2.13222
2.15856
2.18648
2.21608
2.24746
2.28071
2.31593
2.3532
2.39261
2.43425
2.47818
2.52449
2.57324
2.62449
2.67831
2.73474
2.79385
2.85566
2.92022
2.98757
3.05772
3.13071
3.20655
3.28526
3.36683
3.45128
3.5386
3.62878
3.72182
3.81769
3.91637
4.01785
4.12209
4.22906
4.33874
4.45107
4.56603
4.68357
4.80364
4.92621
5.05124
5.17866
5.30844
5.44054
2.04273
2.07053
2.09927
2.12901
2.15982
2.1918
2.225
2.25951
2.29541
2.33275
2.37161
2.41207
2.45419
2.49803
2.54367
2.59115
2.64054
2.69189
2.74527
2.8007
2.85826
2.91797
2.97989
3.04404
3.11047
3.1792
3.25027
3.3237
3.39951
3.47772
3.55835
3.64141
3.72691
3.81486
3.90526
3.99812
4.09343
4.1912
4.29142
4.39408
4.49917
4.60669
4.71662
4.82895
4.94368
5.06078
5.18025
5.30207
5.42623
5.55271
2.08484
2.12163
2.15933
2.19799
2.23764
2.27834
2.32012
2.36304
2.40713
2.45243
2.499
2.54687
2.59608
2.64668
2.69871
2.7522
2.8072
2.86374
2.92186
2.9816
3.04299
3.10607
3.17087
3.23742
3.30576
3.37591
3.44791
3.52177
3.59754
3.67523
3.75487
3.83648
3.9201
4.00573
4.09341
4.18315
4.27498
4.36891
4.46496
4.56316
4.66352
4.76606
4.8708
4.97776
5.08696
5.19841
5.31214
5.42817
5.54651
5.66719
2.12783
2.17372
2.2205
2.26819
2.3168
2.36634
2.41682
2.46825
2.52064
2.57402
2.62839
2.68377
2.74018
2.79763
2.85614
2.91573
2.97641
3.03821
3.10115
3.16526
3.23054
3.29704
3.36477
3.43376
3.50404
3.57564
3.64859
3.72291
3.79864
3.87581
3.95447
4.03463
4.11635
4.19966
4.28459
4.37119
4.4595
4.54956
4.64141
4.73511
4.8307
4.92821
5.02772
5.12925
5.23287
5.33862
5.44656
5.55673
5.66921
5.78404
2.1717
2.22667
2.28253
2.33924
2.39679
2.45515
2.51431
2.57425
2.63495
2.69639
2.75856
2.82145
2.88504
2.94934
3.01433
3.08002
3.1464
3.21347
3.28124
3.34972
3.41892
3.48885
3.55954
3.63099
3.70324
3.77632
3.85024
3.92506
4.00079
4.07749
4.1552
4.23397
4.31384
4.39486
4.4771
4.56062
4.64547
4.73172
4.81945
4.90871
4.99959
5.09215
5.18649
5.28267
5.38078
5.48091
5.58313
5.68755
5.79424
5.90329
2.21648
2.28038
2.34516
2.41074
2.47709
2.54414
2.61184
2.68015
2.74902
2.8184
2.88826
2.95855
3.02923
3.10029
3.17168
3.24339
3.31539
3.38768
3.46023
3.53305
3.60614
3.67949
3.75313
3.82705
3.9013
3.97588
4.05083
4.12618
4.20199
4.27829
4.35514
4.4326
4.51073
4.5896
4.66928
4.74985
4.83139
4.91399
4.99774
5.08274
5.16909
5.25689
5.34625
5.43728
5.53009
5.6248
5.72152
5.82038
5.9215
6.02501
2.26217
2.33474
2.40815
2.48234
2.55721
2.63268
2.70866
2.78509
2.86189
2.93898
3.01629
3.09377
3.17135
3.24897
3.32659
3.40417
3.48166
3.55904
3.63628
3.71336
3.79026
3.86699
3.94354
4.01993
4.09618
4.17229
4.24832
4.32429
4.40026
4.47627
4.55239
4.6287
4.70525
4.78214
4.85946
4.9373
5.01576
5.09496
5.17501
5.25602
5.33813
5.42147
5.50616
5.59235
5.68019
5.76981
5.86137
5.95503
6.05093
6.14923
2.30882
2.38962
2.47128
2.55366
2.63666
2.72016
2.80405
2.88823
2.9726
3.05705
3.1415
3.22586
3.31003
3.39396
3.47756
3.56077
3.64355
3.72584
3.8076
3.8888
3.96942
4.04944
4.12886
4.20769
4.28594
4.36363
4.44079
4.51746
4.5937
4.66957
4.74514
4.82047
4.89568
4.97084
5.04607
5.12147
5.19718
5.27331
5.35001
5.42741
5.50567
5.58495
5.6654
5.7472
5.8305
5.9155
6.00236
6.09128
6.18243
6.27601
2.35642
2.44495
2.53431
2.62437
2.71499
2.80602
2.89732
2.98878
3.08026
3.17163
3.26279
3.35362
3.44402
3.53389
3.62314
3.71169
3.79948
3.88643
3.97251
4.05766
4.14185
4.22506
4.30728
4.3885
4.46875
4.54804
4.6264
4.70388
4.78054
4.85644
4.93165
5.00627
5.08039
5.15413
5.22761
5.30094
5.37428
5.44777
5.52157
5.59583
5.67074
5.74647
5.82321
5.90115
5.98049
6.06143
6.14418
6.22895
6.31596
6.40541
2.405
2.50061
2.59706
2.69417
2.79178
2.88973
2.98786
3.08601
3.18404
3.2818
3.37915
3.47597
3.57212
3.6675
3.76201
3.85553
3.948
4.03933
4.12946
4.21834
4.30592
4.39218
4.4771
4.56068
4.64292
4.72384
4.80348
4.88189
4.95912
5.03525
5.11035
5.18454
5.25791
5.33058
5.4027
5.4744
5.54584
5.61719
5.68861
5.76029
5.83243
5.90522
5.97888
6.05362
6.12966
6.20722
6.28655
6.36788
6.45144
6.53748
2.45459
2.55655
2.65934
2.76277
2.86667
2.97083
3.0751
3.17928
3.28321
3.38673
3.48968
3.59191
3.69329
3.79368
3.89297
3.99105
4.08781
4.18317
4.27706
4.36941
4.46018
4.54933
4.63684
4.7227
4.80691
4.8895
4.97051
5.04997
5.12796
5.20454
5.27982
5.35389
5.42687
5.4989
5.57011
5.64068
5.71075
5.78052
5.85017
5.91991
5.98994
6.06049
6.13179
6.20406
6.27756
6.35253
6.42922
6.5079
6.58883
6.67226
2.5052
2.61268
2.721
2.82995
2.93932
3.04892
3.15854
3.268
3.37711
3.48569
3.59357
3.70059
3.80659
3.91144
4.01499
4.11714
4.21776
4.31677
4.41408
4.50962
4.60334
4.6952
4.78517
4.87323
4.9594
5.0437
5.12615
5.20682
5.28576
5.36305
5.4388
5.51311
5.58611
5.65795
5.72876
5.79873
5.86803
5.93686
6.00541
6.07391
6.14258
6.21166
6.28139
6.35202
6.42382
6.49705
6.57199
6.64891
6.7281
6.80983
2.55685
2.66896
2.78191
2.89549
3.00947
3.12364
3.23779
3.35171
3.46521
3.57809
3.69018
3.80129
3.91126
4.01995
4.1272
4.2329
4.33691
4.43915
4.53951
4.63793
4.73434
4.8287
4.92099
5.01118
5.09928
5.18531
5.26931
5.35133
5.43143
5.50971
5.58626
5.6612
5.73466
5.80679
5.87775
5.94772
6.01688
6.08545
6.15363
6.22166
6.28976
6.3582
6.42723
6.49711
6.56813
6.64055
6.71468
6.79081
6.86923
6.95024
2.60957
2.72535
2.84199
2.95925
3.07691
3.19474
3.31252
3.43004
3.54708
3.66346
3.77897
3.89344
4.00669
4.11857
4.22891
4.3376
4.44451
4.54952
4.65254
4.7535
4.85233
4.94898
5.04343
5.13565
5.22566
5.31346
5.39911
5.48264
5.56414
5.64368
5.72138
5.79736
5.87174
5.94469
6.01637
6.08696
6.15667
6.2257
6.29428
6.36264
6.43104
6.49972
6.56896
6.63904
6.71024
6.78286
6.85719
6.93354
7.01222
7.09353
2.66337
2.78183
2.90116
3.02113
3.14149
3.26203
3.38251
3.50272
3.62243
3.74145
3.85959
3.97664
4.09244
4.20682
4.31964
4.43074
4.54
4.64732
4.75259
4.85574
4.9567
5.05542
5.15187
5.24603
5.33791
5.42753
5.51492
5.60014
5.68326
5.76437
5.84358
5.92101
5.99681
6.07112
6.14412
6.21599
6.28695
6.3572
6.42698
6.49653
6.56609
6.63595
6.70636
6.77762
6.85002
6.92385
6.99943
7.07707
7.15708
7.23979
2.71828
2.8384
2.9594
3.08107
3.20315
3.32541
3.44764
3.5696
3.69108
3.81189
3.93181
4.05066
4.16826
4.28446
4.39908
4.512
4.62309
4.73223
4.83934
4.94432
5.04711
5.14766
5.24595
5.34195
5.43568
5.52714
5.61638
5.70346
5.78845
5.87143
5.95252
6.03185
6.10954
6.18577
6.26071
6.33454
6.40747
6.47972
6.55152
6.62312
6.69476
6.76673
6.83929
6.91274
6.98737
7.06349
7.14139
7.22141
7.30386
7.38906
